Title: Constant values
Date: Sun Feb 12 22:23:57 UTC 2023
Plotname: constants
Flags: real
No. Variables: 2
No. Points: 5400
Variables:
	0	yes	notype dims=1
	1	input_offset	notype
Values:
 0	1.000000000000000e+00
	1.137160000000000e-03

 1	0.000000000000000e+00
	5.592500000000001e-04

 2	0.000000000000000e+00
	2.819830000000000e-03

 3	0.000000000000000e+00
	1.929830000000000e-03

 4	0.000000000000000e+00
	-6.199500000000000e-04

 5	0.000000000000000e+00
	7.800500000000000e-04

 6	0.000000000000000e+00
	2.101500000000000e-04

 7	0.000000000000000e+00
	-2.590200000000000e-04

 8	0.000000000000000e+00
	9.742600000000000e-04

 9	0.000000000000000e+00
	7.500100000000001e-04

 10	0.000000000000000e+00
	6.192000000000000e-05

 11	0.000000000000000e+00
	-1.653210000000000e-03

 12	0.000000000000000e+00
	-1.144900000000000e-04

 13	0.000000000000000e+00
	1.318000000000000e-04

 14	0.000000000000000e+00
	-1.580460000000000e-03

 15	0.000000000000000e+00
	-6.689300000000001e-04

 16	0.000000000000000e+00
	1.602000000000000e-05

 17	0.000000000000000e+00
	6.442400000000000e-04

 18	0.000000000000000e+00
	4.547000000000000e-04

 19	0.000000000000000e+00
	-5.359300000000000e-04

 20	0.000000000000000e+00
	-6.314800000000000e-04

 21	0.000000000000000e+00
	9.688400000000000e-04

 22	0.000000000000000e+00
	-1.051940000000000e-03

 23	0.000000000000000e+00
	-7.450600000000000e-04

 24	0.000000000000000e+00
	2.801300000000000e-04

 25	0.000000000000000e+00
	-8.251100000000000e-04

 26	0.000000000000000e+00
	-5.785600000000000e-04

 27	0.000000000000000e+00
	2.659800000000000e-04

 28	0.000000000000000e+00
	2.484330000000000e-03

 29	0.000000000000000e+00
	-8.058600000000000e-04

 30	0.000000000000000e+00
	-3.890150000000000e-03

 31	0.000000000000000e+00
	-7.682700000000000e-04

 32	0.000000000000000e+00
	1.656140000000000e-03

 33	0.000000000000000e+00
	5.930000000000000e-04

 34	0.000000000000000e+00
	1.172370000000000e-03

 35	0.000000000000000e+00
	-9.305000000000000e-05

 36	0.000000000000000e+00
	1.851280000000000e-03

 37	0.000000000000000e+00
	8.095600000000000e-04

 38	0.000000000000000e+00
	-1.645930000000000e-03

 39	0.000000000000000e+00
	9.757100000000000e-04

 40	0.000000000000000e+00
	-6.821000000000000e-04

 41	0.000000000000000e+00
	-3.299000000000000e-05

 42	0.000000000000000e+00
	2.128380000000000e-03

 43	0.000000000000000e+00
	-1.834880000000000e-03

 44	0.000000000000000e+00
	6.479700000000001e-04

 45	0.000000000000000e+00
	-8.457200000000001e-04

 46	0.000000000000000e+00
	1.129830000000000e-03

 47	0.000000000000000e+00
	-2.584380000000000e-03

 48	0.000000000000000e+00
	-1.689500000000000e-04

 49	0.000000000000000e+00
	-3.233000000000001e-04

 50	0.000000000000000e+00
	9.078700000000000e-04

 51	0.000000000000000e+00
	-1.701050000000000e-03

 52	0.000000000000000e+00
	-2.549270000000000e-03

 53	0.000000000000000e+00
	-7.546800000000001e-04

 54	0.000000000000000e+00
	1.176360000000000e-03

 55	0.000000000000000e+00
	8.320900000000001e-04

 56	0.000000000000000e+00
	8.901299999999999e-04

 57	0.000000000000000e+00
	-1.720450000000000e-03

 58	0.000000000000000e+00
	-1.708490000000000e-03

 59	0.000000000000000e+00
	-2.501600000000000e-04

 60	0.000000000000000e+00
	-2.598200000000000e-04

 61	0.000000000000000e+00
	5.722500000000001e-04

 62	0.000000000000000e+00
	-1.025210000000000e-03

 63	0.000000000000000e+00
	8.821100000000000e-04

 64	0.000000000000000e+00
	-3.419900000000000e-04

 65	0.000000000000000e+00
	-2.898500000000000e-04

 66	0.000000000000000e+00
	1.296800000000000e-04

 67	0.000000000000000e+00
	-6.574899999999999e-04

 68	0.000000000000000e+00
	-7.995600000000000e-04

 69	0.000000000000000e+00
	6.075200000000000e-04

 70	0.000000000000000e+00
	-4.722000000000000e-04

 71	0.000000000000000e+00
	-1.838900000000000e-03

 72	0.000000000000000e+00
	1.017620000000000e-03

 73	0.000000000000000e+00
	-1.482510000000000e-03

 74	0.000000000000000e+00
	1.580000000000000e-03

 75	0.000000000000000e+00
	8.037200000000001e-04

 76	0.000000000000000e+00
	5.517800000000001e-04

 77	0.000000000000000e+00
	3.790900000000000e-04

 78	0.000000000000000e+00
	8.790200000000001e-04

 79	0.000000000000000e+00
	7.416600000000000e-04

 80	0.000000000000000e+00
	1.604110000000000e-03

 81	0.000000000000000e+00
	-2.440230000000000e-03

 82	0.000000000000000e+00
	2.268200000000000e-03

 83	0.000000000000000e+00
	2.007630000000000e-03

 84	0.000000000000000e+00
	1.611620000000000e-03

 85	0.000000000000000e+00
	-1.780220000000000e-03

 86	0.000000000000000e+00
	-9.919300000000000e-04

 87	0.000000000000000e+00
	5.660400000000001e-04

 88	0.000000000000000e+00
	1.230180000000000e-03

 89	0.000000000000000e+00
	-1.541580000000000e-03

 90	0.000000000000000e+00
	2.223710000000000e-03

 91	0.000000000000000e+00
	1.539810000000000e-03

 92	0.000000000000000e+00
	-7.482900000000000e-04

 93	0.000000000000000e+00
	-3.108600000000000e-04

 94	0.000000000000000e+00
	1.081240000000000e-03

 95	0.000000000000000e+00
	1.387520000000000e-03

 96	0.000000000000000e+00
	-2.519600000000000e-04

 97	0.000000000000000e+00
	4.213200000000000e-04

 98	0.000000000000000e+00
	4.733700000000000e-04

 99	0.000000000000000e+00
	-2.324070000000000e-03

 100	0.000000000000000e+00
	-1.201970000000000e-03

 101	0.000000000000000e+00
	1.238300000000000e-03

 102	0.000000000000000e+00
	1.109000000000000e-04

 103	0.000000000000000e+00
	-9.870700000000000e-04

 104	0.000000000000000e+00
	-4.713100000000000e-04

 105	0.000000000000000e+00
	-9.308800000000000e-04

 106	0.000000000000000e+00
	2.423820000000000e-03

 107	0.000000000000000e+00
	-6.887800000000001e-04

 108	0.000000000000000e+00
	-2.498500000000000e-04

 109	0.000000000000000e+00
	-1.172230000000000e-03

 110	0.000000000000000e+00
	1.691100000000000e-04

 111	0.000000000000000e+00
	1.798610000000000e-03

 112	0.000000000000000e+00
	1.343460000000000e-03

 113	0.000000000000000e+00
	6.312000000000001e-05

 114	0.000000000000000e+00
	1.803250000000000e-03

 115	0.000000000000000e+00
	-1.260070000000000e-03

 116	0.000000000000000e+00
	-5.684400000000000e-04

 117	0.000000000000000e+00
	-1.980680000000000e-03

 118	0.000000000000000e+00
	-8.192100000000000e-04

 119	0.000000000000000e+00
	7.002300000000000e-04

 120	0.000000000000000e+00
	-8.289400000000001e-04

 121	0.000000000000000e+00
	7.645600000000001e-04

 122	0.000000000000000e+00
	8.720800000000001e-04

 123	0.000000000000000e+00
	3.535600000000001e-04

 124	0.000000000000000e+00
	-1.720850000000000e-03

 125	0.000000000000000e+00
	7.955900000000000e-04

 126	0.000000000000000e+00
	1.075390000000000e-03

 127	0.000000000000000e+00
	1.144140000000000e-03

 128	0.000000000000000e+00
	9.020000000000000e-04

 129	0.000000000000000e+00
	-4.902500000000000e-04

 130	0.000000000000000e+00
	-1.057730000000000e-03

 131	0.000000000000000e+00
	7.821600000000001e-04

 132	0.000000000000000e+00
	1.005760000000000e-03

 133	0.000000000000000e+00
	-1.530300000000000e-04

 134	0.000000000000000e+00
	-7.670700000000000e-04

 135	0.000000000000000e+00
	1.352470000000000e-03

 136	0.000000000000000e+00
	-1.860800000000000e-04

 137	0.000000000000000e+00
	1.072640000000000e-03

 138	0.000000000000000e+00
	-3.516700000000001e-04

 139	0.000000000000000e+00
	3.157200000000000e-04

 140	0.000000000000000e+00
	1.244110000000000e-03

 141	0.000000000000000e+00
	1.567390000000000e-03

 142	0.000000000000000e+00
	9.239500000000000e-04

 143	0.000000000000000e+00
	1.095900000000000e-04

 144	0.000000000000000e+00
	-3.523000000000001e-05

 145	0.000000000000000e+00
	3.587300000000000e-04

 146	0.000000000000000e+00
	6.283300000000000e-04

 147	0.000000000000000e+00
	-1.278670000000000e-03

 148	0.000000000000000e+00
	4.973400000000000e-04

 149	0.000000000000000e+00
	-1.931040000000000e-03

 150	0.000000000000000e+00
	2.264000000000000e-04

 151	0.000000000000000e+00
	-2.249700000000000e-04

 152	0.000000000000000e+00
	-6.053200000000000e-04

 153	0.000000000000000e+00
	4.301700000000001e-04

 154	0.000000000000000e+00
	-2.101000000000000e-04

 155	0.000000000000000e+00
	-7.595000000000000e-04

 156	0.000000000000000e+00
	8.078500000000000e-04

 157	0.000000000000000e+00
	-1.083640000000000e-03

 158	0.000000000000000e+00
	-3.066900000000000e-04

 159	0.000000000000000e+00
	-5.554800000000000e-04

 160	0.000000000000000e+00
	1.072910000000000e-03

 161	0.000000000000000e+00
	-1.236820000000000e-03

 162	0.000000000000000e+00
	-1.220230000000000e-03

 163	0.000000000000000e+00
	2.128540000000000e-03

 164	0.000000000000000e+00
	5.352100000000000e-04

 165	0.000000000000000e+00
	-1.000170000000000e-03

 166	0.000000000000000e+00
	6.361000000000001e-05

 167	0.000000000000000e+00
	-5.710400000000000e-04

 168	0.000000000000000e+00
	-2.145000000000000e-05

 169	0.000000000000000e+00
	1.166620000000000e-03

 170	0.000000000000000e+00
	-5.348400000000000e-04

 171	0.000000000000000e+00
	8.582000000000002e-04

 172	0.000000000000000e+00
	3.678000000000000e-04

 173	0.000000000000000e+00
	-1.262330000000000e-03

 174	0.000000000000000e+00
	-1.539080000000000e-03

 175	0.000000000000000e+00
	1.424300000000000e-03

 176	0.000000000000000e+00
	-1.630800000000000e-04

 177	0.000000000000000e+00
	5.289700000000000e-04

 178	0.000000000000000e+00
	-6.296000000000000e-04

 179	0.000000000000000e+00
	7.069900000000000e-04

 180	0.000000000000000e+00
	6.792899999999999e-04

 181	0.000000000000000e+00
	9.097000000000000e-04

 182	0.000000000000000e+00
	5.229100000000000e-04

 183	0.000000000000000e+00
	-4.480400000000001e-04

 184	0.000000000000000e+00
	-3.422300000000000e-04

 185	0.000000000000000e+00
	-3.985800000000000e-04

 186	0.000000000000000e+00
	1.454540000000000e-03

 187	0.000000000000000e+00
	1.481300000000000e-04

 188	0.000000000000000e+00
	-7.834700000000000e-04

 189	0.000000000000000e+00
	4.913800000000000e-04

 190	0.000000000000000e+00
	-5.960700000000001e-04

 191	0.000000000000000e+00
	1.106750000000000e-03

 192	0.000000000000000e+00
	-7.557600000000001e-04

 193	0.000000000000000e+00
	9.481700000000000e-04

 194	0.000000000000000e+00
	-3.474900000000000e-04

 195	0.000000000000000e+00
	-5.421500000000000e-04

 196	0.000000000000000e+00
	1.158470000000000e-03

 197	0.000000000000000e+00
	-5.306500000000000e-04

 198	0.000000000000000e+00
	-1.757240000000000e-03

 199	0.000000000000000e+00
	3.211700000000000e-04

 200	0.000000000000000e+00
	-1.665300000000000e-04

 201	0.000000000000000e+00
	9.197900000000001e-04

 202	0.000000000000000e+00
	-6.915300000000001e-04

 203	0.000000000000000e+00
	-4.081800000000001e-04

 204	0.000000000000000e+00
	6.405000000000001e-05

 205	0.000000000000000e+00
	1.376400000000000e-04

 206	0.000000000000000e+00
	5.526900000000000e-04

 207	0.000000000000000e+00
	-1.137350000000000e-03

 208	0.000000000000000e+00
	-1.484000000000000e-05

 209	0.000000000000000e+00
	1.693390000000000e-03

 210	0.000000000000000e+00
	-4.243500000000000e-04

 211	0.000000000000000e+00
	-9.980200000000001e-04

 212	0.000000000000000e+00
	-1.519170000000000e-03

 213	0.000000000000000e+00
	1.395820000000000e-03

 214	0.000000000000000e+00
	-1.160410000000000e-03

 215	0.000000000000000e+00
	-9.103400000000002e-04

 216	0.000000000000000e+00
	-1.306250000000000e-03

 217	0.000000000000000e+00
	4.914300000000001e-04

 218	0.000000000000000e+00
	4.972400000000000e-04

 219	0.000000000000000e+00
	1.300340000000000e-03

 220	0.000000000000000e+00
	-1.729330000000000e-03

 221	0.000000000000000e+00
	8.883700000000000e-04

 222	0.000000000000000e+00
	4.380800000000000e-04

 223	0.000000000000000e+00
	-1.346220000000000e-03

 224	0.000000000000000e+00
	-7.374000000000000e-04

 225	0.000000000000000e+00
	-1.412140000000000e-03

 226	0.000000000000000e+00
	-3.020000000000000e-05

 227	0.000000000000000e+00
	1.054420000000000e-03

 228	0.000000000000000e+00
	1.122500000000000e-04

 229	0.000000000000000e+00
	-5.116399999999999e-04

 230	0.000000000000000e+00
	1.128700000000000e-04

 231	0.000000000000000e+00
	-4.921800000000000e-04

 232	0.000000000000000e+00
	5.528600000000001e-04

 233	0.000000000000000e+00
	7.422000000000000e-05

 234	0.000000000000000e+00
	-9.596200000000000e-04

 235	0.000000000000000e+00
	1.343600000000000e-03

 236	0.000000000000000e+00
	-2.508530000000000e-03

 237	0.000000000000000e+00
	-6.411800000000001e-04

 238	0.000000000000000e+00
	1.101610000000000e-03

 239	0.000000000000000e+00
	6.142100000000000e-04

 240	0.000000000000000e+00
	8.998500000000000e-04

 241	0.000000000000000e+00
	-5.686199999999999e-04

 242	0.000000000000000e+00
	7.479500000000000e-04

 243	0.000000000000000e+00
	-5.084500000000000e-04

 244	0.000000000000000e+00
	-1.260200000000000e-03

 245	0.000000000000000e+00
	1.141650000000000e-03

 246	0.000000000000000e+00
	8.640599999999999e-04

 247	0.000000000000000e+00
	1.064010000000000e-03

 248	0.000000000000000e+00
	-7.550900000000000e-04

 249	0.000000000000000e+00
	-1.762100000000000e-04

 250	0.000000000000000e+00
	1.465720000000000e-03

 251	0.000000000000000e+00
	3.340700000000000e-04

 252	0.000000000000000e+00
	-1.166270000000000e-03

 253	0.000000000000000e+00
	1.386300000000000e-03

 254	0.000000000000000e+00
	2.697800000000000e-04

 255	0.000000000000000e+00
	6.740700000000000e-04

 256	0.000000000000000e+00
	4.451500000000001e-04

 257	0.000000000000000e+00
	2.196700000000000e-04

 258	0.000000000000000e+00
	7.311600000000000e-04

 259	0.000000000000000e+00
	2.624700000000000e-04

 260	0.000000000000000e+00
	-1.449700000000000e-04

 261	0.000000000000000e+00
	8.037200000000001e-04

 262	0.000000000000000e+00
	-9.467500000000000e-04

 263	0.000000000000000e+00
	-1.253230000000000e-03

 264	0.000000000000000e+00
	-1.476470000000000e-03

 265	0.000000000000000e+00
	1.218000000000000e-05

 266	0.000000000000000e+00
	9.199300000000000e-04

 267	0.000000000000000e+00
	-1.032130000000000e-03

 268	0.000000000000000e+00
	-2.943000000000000e-04

 269	0.000000000000000e+00
	1.547820000000000e-03

 270	0.000000000000000e+00
	1.080070000000000e-03

 271	0.000000000000000e+00
	2.710200000000000e-04

 272	0.000000000000000e+00
	5.981200000000001e-04

 273	0.000000000000000e+00
	7.041000000000000e-04

 274	0.000000000000000e+00
	-3.460700000000000e-04

 275	0.000000000000000e+00
	8.606600000000001e-04

 276	0.000000000000000e+00
	2.527420000000000e-03

 277	0.000000000000000e+00
	-4.210700000000000e-04

 278	0.000000000000000e+00
	-1.945000000000000e-05

 279	0.000000000000000e+00
	-2.790000000000000e-05

 280	0.000000000000000e+00
	4.916699999999999e-04

 281	0.000000000000000e+00
	-7.360600000000000e-04

 282	0.000000000000000e+00
	-5.688500000000001e-04

 283	0.000000000000000e+00
	-1.545750000000000e-03

 284	0.000000000000000e+00
	-9.772299999999999e-04

 285	0.000000000000000e+00
	-5.057600000000001e-04

 286	0.000000000000000e+00
	-1.175890000000000e-03

 287	0.000000000000000e+00
	1.214000000000000e-03

 288	0.000000000000000e+00
	1.289340000000000e-03

 289	0.000000000000000e+00
	2.040000000000000e-06

 290	0.000000000000000e+00
	-8.220000000000001e-04

 291	0.000000000000000e+00
	-2.883200000000000e-04

 292	0.000000000000000e+00
	8.043000000000000e-04

 293	0.000000000000000e+00
	2.970000000000000e-06

 294	0.000000000000000e+00
	6.741400000000000e-04

 295	0.000000000000000e+00
	2.042150000000000e-03

 296	0.000000000000000e+00
	9.106000000000001e-05

 297	0.000000000000000e+00
	1.314290000000000e-03

 298	0.000000000000000e+00
	-1.130480000000000e-03

 299	0.000000000000000e+00
	-6.390200000000000e-04

 300	0.000000000000000e+00
	-3.179000000000000e-04

 301	0.000000000000000e+00
	-2.770300000000000e-04

 302	0.000000000000000e+00
	-1.173040000000000e-03

 303	0.000000000000000e+00
	-4.073600000000000e-04

 304	0.000000000000000e+00
	7.135000000000000e-05

 305	0.000000000000000e+00
	-1.401800000000000e-03

 306	0.000000000000000e+00
	1.591910000000000e-03

 307	0.000000000000000e+00
	-4.362100000000000e-04

 308	0.000000000000000e+00
	-3.959200000000000e-04

 309	0.000000000000000e+00
	-7.360900000000000e-04

 310	0.000000000000000e+00
	1.074930000000000e-03

 311	0.000000000000000e+00
	1.918400000000000e-03

 312	0.000000000000000e+00
	-1.009050000000000e-03

 313	0.000000000000000e+00
	6.778500000000000e-04

 314	0.000000000000000e+00
	7.525200000000000e-04

 315	0.000000000000000e+00
	-3.222200000000000e-04

 316	0.000000000000000e+00
	2.746000000000000e-05

 317	0.000000000000000e+00
	-3.812300000000000e-04

 318	0.000000000000000e+00
	6.744000000000000e-05

 319	0.000000000000000e+00
	3.852100000000000e-04

 320	0.000000000000000e+00
	-2.764600000000000e-04

 321	0.000000000000000e+00
	1.337890000000000e-03

 322	0.000000000000000e+00
	-7.162600000000000e-04

 323	0.000000000000000e+00
	1.633990000000000e-03

 324	0.000000000000000e+00
	-1.208540000000000e-03

 325	0.000000000000000e+00
	2.668900000000000e-04

 326	0.000000000000000e+00
	1.403960000000000e-03

 327	0.000000000000000e+00
	3.720500000000000e-04

 328	0.000000000000000e+00
	-7.259600000000000e-04

 329	0.000000000000000e+00
	3.739600000000000e-04

 330	0.000000000000000e+00
	1.642510000000000e-03

 331	0.000000000000000e+00
	8.938800000000001e-04

 332	0.000000000000000e+00
	-8.434800000000000e-04

 333	0.000000000000000e+00
	-4.299000000000000e-04

 334	0.000000000000000e+00
	-3.247580000000000e-03

 335	0.000000000000000e+00
	-7.637399999999999e-04

 336	0.000000000000000e+00
	-6.782400000000000e-04

 337	0.000000000000000e+00
	2.235600000000000e-04

 338	0.000000000000000e+00
	1.097500000000000e-04

 339	0.000000000000000e+00
	1.441550000000000e-03

 340	0.000000000000000e+00
	2.299250000000000e-03

 341	0.000000000000000e+00
	-7.360000000000001e-04

 342	0.000000000000000e+00
	1.597530000000000e-03

 343	0.000000000000000e+00
	6.327600000000001e-04

 344	0.000000000000000e+00
	-6.583000000000000e-04

 345	0.000000000000000e+00
	-1.076970000000000e-03

 346	0.000000000000000e+00
	8.840400000000001e-04

 347	0.000000000000000e+00
	-7.101100000000000e-04

 348	0.000000000000000e+00
	-6.689900000000001e-04

 349	0.000000000000000e+00
	8.536600000000000e-04

 350	0.000000000000000e+00
	-6.137100000000001e-04

 351	0.000000000000000e+00
	-4.803700000000000e-04

 352	0.000000000000000e+00
	1.244000000000000e-04

 353	0.000000000000000e+00
	-9.595000000000001e-05

 354	0.000000000000000e+00
	-7.649900000000000e-04

 355	0.000000000000000e+00
	7.715000000000001e-05

 356	0.000000000000000e+00
	-5.496000000000000e-04

 357	0.000000000000000e+00
	-6.042100000000000e-04

 358	0.000000000000000e+00
	-6.067100000000000e-04

 359	0.000000000000000e+00
	1.124190000000000e-03

 360	0.000000000000000e+00
	-2.193100000000000e-04

 361	0.000000000000000e+00
	9.256399999999999e-04

 362	0.000000000000000e+00
	-7.400200000000000e-04

 363	0.000000000000000e+00
	1.741020000000000e-03

 364	0.000000000000000e+00
	8.810000000000001e-04

 365	0.000000000000000e+00
	-2.312800000000000e-04

 366	0.000000000000000e+00
	1.321560000000000e-03

 367	0.000000000000000e+00
	3.616200000000001e-04

 368	0.000000000000000e+00
	8.432200000000000e-04

 369	0.000000000000000e+00
	-6.619200000000001e-04

 370	0.000000000000000e+00
	-2.610260000000000e-03

 371	0.000000000000000e+00
	1.701620000000000e-03

 372	0.000000000000000e+00
	-1.746050000000000e-03

 373	0.000000000000000e+00
	2.013880000000000e-03

 374	0.000000000000000e+00
	1.385800000000000e-04

 375	0.000000000000000e+00
	9.306400000000000e-04

 376	0.000000000000000e+00
	1.793000000000000e-04

 377	0.000000000000000e+00
	8.869800000000000e-04

 378	0.000000000000000e+00
	-2.681700000000000e-04

 379	0.000000000000000e+00
	2.068960000000000e-03

 380	0.000000000000000e+00
	6.271100000000000e-04

 381	0.000000000000000e+00
	8.140000000000001e-04

 382	0.000000000000000e+00
	9.806699999999999e-04

 383	0.000000000000000e+00
	-8.585700000000000e-04

 384	0.000000000000000e+00
	1.246130000000000e-03

 385	0.000000000000000e+00
	6.040500000000000e-04

 386	0.000000000000000e+00
	-1.196070000000000e-03

 387	0.000000000000000e+00
	-1.265930000000000e-03

 388	0.000000000000000e+00
	-1.094470000000000e-03

 389	0.000000000000000e+00
	-1.385850000000000e-03

 390	0.000000000000000e+00
	-3.029300000000000e-04

 391	0.000000000000000e+00
	-1.215850000000000e-03

 392	0.000000000000000e+00
	-9.860600000000000e-04

 393	0.000000000000000e+00
	-5.547600000000001e-04

 394	0.000000000000000e+00
	6.316500000000000e-04

 395	0.000000000000000e+00
	2.685650000000000e-03

 396	0.000000000000000e+00
	-1.423440000000000e-03

 397	0.000000000000000e+00
	-2.945200000000000e-04

 398	0.000000000000000e+00
	-1.416510000000000e-03

 399	0.000000000000000e+00
	5.210000000000000e-04

 400	0.000000000000000e+00
	4.980200000000001e-04

 401	0.000000000000000e+00
	1.562930000000000e-03

 402	0.000000000000000e+00
	-7.497700000000001e-04

 403	0.000000000000000e+00
	-1.070040000000000e-03

 404	0.000000000000000e+00
	-7.459300000000000e-04

 405	0.000000000000000e+00
	-4.766200000000000e-04

 406	0.000000000000000e+00
	1.063570000000000e-03

 407	0.000000000000000e+00
	4.537400000000000e-04

 408	0.000000000000000e+00
	1.603000000000000e-04

 409	0.000000000000000e+00
	-1.621960000000000e-03

 410	0.000000000000000e+00
	1.224060000000000e-03

 411	0.000000000000000e+00
	8.297400000000000e-04

 412	0.000000000000000e+00
	-6.162000000000000e-04

 413	0.000000000000000e+00
	-7.755700000000001e-04

 414	0.000000000000000e+00
	-1.248100000000000e-03

 415	0.000000000000000e+00
	1.137140000000000e-03

 416	0.000000000000000e+00
	3.219200000000000e-04

 417	0.000000000000000e+00
	1.228000000000000e-04

 418	0.000000000000000e+00
	-1.568600000000000e-04

 419	0.000000000000000e+00
	8.106600000000000e-04

 420	0.000000000000000e+00
	8.966000000000000e-04

 421	0.000000000000000e+00
	-2.278340000000000e-03

 422	0.000000000000000e+00
	1.462400000000000e-03

 423	0.000000000000000e+00
	6.316600000000000e-04

 424	0.000000000000000e+00
	6.214600000000000e-04

 425	0.000000000000000e+00
	-2.065100000000000e-04

 426	0.000000000000000e+00
	-6.284800000000001e-04

 427	0.000000000000000e+00
	-1.260300000000000e-04

 428	0.000000000000000e+00
	1.390830000000000e-03

 429	0.000000000000000e+00
	1.034150000000000e-03

 430	0.000000000000000e+00
	7.341300000000000e-04

 431	0.000000000000000e+00
	2.494350000000000e-03

 432	0.000000000000000e+00
	3.577300000000000e-04

 433	0.000000000000000e+00
	2.184210000000000e-03

 434	0.000000000000000e+00
	9.816000000000002e-04

 435	0.000000000000000e+00
	-5.859400000000001e-04

 436	0.000000000000000e+00
	-1.615000000000000e-04

 437	0.000000000000000e+00
	-1.542900000000000e-03

 438	0.000000000000000e+00
	-6.068200000000000e-04

 439	0.000000000000000e+00
	2.678500000000000e-04

 440	0.000000000000000e+00
	4.179800000000000e-04

 441	0.000000000000000e+00
	1.304150000000000e-03

 442	0.000000000000000e+00
	3.117900000000000e-04

 443	0.000000000000000e+00
	1.502230000000000e-03

 444	0.000000000000000e+00
	-8.058700000000001e-04

 445	0.000000000000000e+00
	1.411970000000000e-03

 446	0.000000000000000e+00
	-2.567500000000000e-04

 447	0.000000000000000e+00
	1.140840000000000e-03

 448	0.000000000000000e+00
	-3.034000000000000e-05

 449	0.000000000000000e+00
	-8.198800000000000e-04

 450	0.000000000000000e+00
	7.736000000000000e-05

 451	0.000000000000000e+00
	2.184790000000000e-03

 452	0.000000000000000e+00
	6.902600000000000e-04

 453	0.000000000000000e+00
	8.100000000000000e-05

 454	0.000000000000000e+00
	2.340400000000000e-04

 455	0.000000000000000e+00
	1.543600000000000e-03

 456	0.000000000000000e+00
	9.200500000000001e-04

 457	0.000000000000000e+00
	3.903200000000000e-04

 458	0.000000000000000e+00
	6.841000000000001e-04

 459	0.000000000000000e+00
	-1.185860000000000e-03

 460	0.000000000000000e+00
	5.590000000000000e-05

 461	0.000000000000000e+00
	6.478400000000000e-04

 462	0.000000000000000e+00
	9.817700000000001e-04

 463	0.000000000000000e+00
	-2.130000000000000e-06

 464	0.000000000000000e+00
	1.660250000000000e-03

 465	0.000000000000000e+00
	-6.131700000000000e-04

 466	0.000000000000000e+00
	-3.392900000000000e-04

 467	0.000000000000000e+00
	1.964300000000000e-03

 468	0.000000000000000e+00
	-1.459350000000000e-03

 469	0.000000000000000e+00
	2.742600000000000e-04

 470	0.000000000000000e+00
	-2.047240000000000e-03

 471	0.000000000000000e+00
	3.082000000000000e-05

 472	0.000000000000000e+00
	5.090800000000000e-04

 473	0.000000000000000e+00
	-4.059100000000000e-04

 474	0.000000000000000e+00
	-8.503200000000000e-04

 475	0.000000000000000e+00
	-1.548000000000000e-04

 476	0.000000000000000e+00
	5.699300000000001e-04

 477	0.000000000000000e+00
	2.101140000000000e-03

 478	0.000000000000000e+00
	-1.692360000000000e-03

 479	0.000000000000000e+00
	-1.461070000000000e-03

 480	0.000000000000000e+00
	-7.660200000000000e-04

 481	0.000000000000000e+00
	3.879700000000000e-04

 482	0.000000000000000e+00
	2.740300000000000e-04

 483	0.000000000000000e+00
	7.675600000000000e-04

 484	0.000000000000000e+00
	1.929350000000000e-03

 485	0.000000000000000e+00
	-1.224300000000000e-04

 486	0.000000000000000e+00
	1.133630000000000e-03

 487	0.000000000000000e+00
	7.794600000000000e-04

 488	0.000000000000000e+00
	9.204200000000000e-04

 489	0.000000000000000e+00
	-2.669800000000000e-04

 490	0.000000000000000e+00
	1.060260000000000e-03

 491	0.000000000000000e+00
	2.009000000000000e-04

 492	0.000000000000000e+00
	1.047580000000000e-03

 493	0.000000000000000e+00
	9.295800000000001e-04

 494	0.000000000000000e+00
	9.725000000000001e-05

 495	0.000000000000000e+00
	6.916900000000000e-04

 496	0.000000000000000e+00
	-5.959500000000000e-04

 497	0.000000000000000e+00
	-2.992000000000000e-04

 498	0.000000000000000e+00
	9.276000000000000e-04

 499	0.000000000000000e+00
	-1.420390000000000e-03

 500	0.000000000000000e+00
	7.352900000000000e-04

 501	0.000000000000000e+00
	8.739400000000000e-04

 502	0.000000000000000e+00
	3.613000000000000e-04

 503	0.000000000000000e+00
	-1.288340000000000e-03

 504	0.000000000000000e+00
	-8.860900000000002e-04

 505	0.000000000000000e+00
	5.329100000000000e-04

 506	0.000000000000000e+00
	1.731800000000000e-04

 507	0.000000000000000e+00
	1.043700000000000e-03

 508	0.000000000000000e+00
	2.014000000000000e-04

 509	0.000000000000000e+00
	-1.260480000000000e-03

 510	0.000000000000000e+00
	1.080540000000000e-03

 511	0.000000000000000e+00
	6.940100000000000e-04

 512	0.000000000000000e+00
	4.701900000000001e-04

 513	0.000000000000000e+00
	1.589870000000000e-03

 514	0.000000000000000e+00
	6.016300000000000e-04

 515	0.000000000000000e+00
	-5.454300000000001e-04

 516	0.000000000000000e+00
	8.247700000000001e-04

 517	0.000000000000000e+00
	-1.675200000000000e-04

 518	0.000000000000000e+00
	1.966650000000000e-03

 519	0.000000000000000e+00
	-2.026680000000000e-03

 520	0.000000000000000e+00
	-1.336890000000000e-03

 521	0.000000000000000e+00
	1.192430000000000e-03

 522	0.000000000000000e+00
	-1.300960000000000e-03

 523	0.000000000000000e+00
	1.021870000000000e-03

 524	0.000000000000000e+00
	-4.636800000000000e-04

 525	0.000000000000000e+00
	1.841870000000000e-03

 526	0.000000000000000e+00
	9.817500000000002e-04

 527	0.000000000000000e+00
	2.211000000000000e-04

 528	0.000000000000000e+00
	1.839700000000000e-04

 529	0.000000000000000e+00
	8.151800000000000e-04

 530	0.000000000000000e+00
	1.651540000000000e-03

 531	0.000000000000000e+00
	7.807000000000001e-04

 532	0.000000000000000e+00
	-1.196970000000000e-03

 533	0.000000000000000e+00
	-3.961100000000000e-04

 534	0.000000000000000e+00
	3.864700000000000e-04

 535	0.000000000000000e+00
	-1.153600000000000e-04

 536	0.000000000000000e+00
	-1.776480000000000e-03

 537	0.000000000000000e+00
	-9.183000000000000e-04

 538	0.000000000000000e+00
	-1.020200000000000e-03

 539	0.000000000000000e+00
	1.891800000000000e-04

 540	0.000000000000000e+00
	9.167000000000000e-04

 541	0.000000000000000e+00
	5.900100000000001e-04

 542	0.000000000000000e+00
	-5.345500000000001e-04

 543	0.000000000000000e+00
	-2.850500000000000e-04

 544	0.000000000000000e+00
	-4.087100000000001e-04

 545	0.000000000000000e+00
	-1.898380000000000e-03

 546	0.000000000000000e+00
	-8.181400000000001e-04

 547	0.000000000000000e+00
	2.916500000000000e-04

 548	0.000000000000000e+00
	-2.760320000000000e-03

 549	0.000000000000000e+00
	1.170612000000000e-16

 550	0.000000000000000e+00
	5.610300000000000e-04

 551	0.000000000000000e+00
	2.113600000000000e-03

 552	0.000000000000000e+00
	-1.227900000000000e-04

 553	0.000000000000000e+00
	1.360220000000000e-03

 554	0.000000000000000e+00
	1.254090000000000e-03

 555	0.000000000000000e+00
	2.723500000000000e-04

 556	0.000000000000000e+00
	-4.797600000000000e-04

 557	0.000000000000000e+00
	1.729610000000000e-03

 558	0.000000000000000e+00
	-1.168150000000000e-03

 559	0.000000000000000e+00
	-2.058900000000000e-04

 560	0.000000000000000e+00
	1.151900000000000e-03

 561	0.000000000000000e+00
	-2.260410000000000e-03

 562	0.000000000000000e+00
	-1.741080000000000e-03

 563	0.000000000000000e+00
	1.444790000000000e-03

 564	0.000000000000000e+00
	-6.984500000000000e-04

 565	0.000000000000000e+00
	-2.860000000000000e-04

 566	0.000000000000000e+00
	1.574040000000000e-03

 567	0.000000000000000e+00
	8.047000000000001e-04

 568	0.000000000000000e+00
	1.730840000000000e-03

 569	0.000000000000000e+00
	-2.025000000000000e-04

 570	0.000000000000000e+00
	-7.151400000000000e-04

 571	0.000000000000000e+00
	-2.970900000000000e-04

 572	0.000000000000000e+00
	-1.081990000000000e-03

 573	0.000000000000000e+00
	-5.947000000000000e-05

 574	0.000000000000000e+00
	3.408600000000000e-04

 575	0.000000000000000e+00
	-1.195400000000000e-04

 576	0.000000000000000e+00
	-1.462320000000000e-03

 577	0.000000000000000e+00
	2.339600000000000e-04

 578	0.000000000000000e+00
	1.010000000000000e-03

 579	0.000000000000000e+00
	-3.529000000000000e-04

 580	0.000000000000000e+00
	-1.630700000000000e-04
