Title: Constant values
Date: Sun Feb 12 22:23:57 UTC 2023
Plotname: constants
Flags: real
No. Variables: 2
No. Points: 27
Variables:
	0	yes	notype dims=1
	1	input_offset	notype
Values:
 0	1.000000000000000e+00
	2.500000000000000e-05

 1	0.000000000000000e+00
	2.500000000000000e-05

 2	0.000000000000000e+00
	2.500000000000000e-05

 3	0.000000000000000e+00
	2.500000000000000e-05

 4	0.000000000000000e+00
	2.500000000000000e-05

 5	0.000000000000000e+00
	2.500000000000000e-05

 6	0.000000000000000e+00
	2.500000000000000e-05

 7	0.000000000000000e+00
	2.500000000000000e-05

 8	0.000000000000000e+00
	2.500000000000000e-05

 9	0.000000000000000e+00
	2.500000000000000e-05

 10	0.000000000000000e+00
	2.500000000000000e-05

 11	0.000000000000000e+00
	2.500000000000000e-05

 12	0.000000000000000e+00
	2.500000000000000e-05

 13	0.000000000000000e+00
	2.500000000000000e-05

 14	0.000000000000000e+00
	2.500000000000000e-05

 15	0.000000000000000e+00
	2.500000000000000e-05

 16	0.000000000000000e+00
	2.500000000000000e-05

 17	0.000000000000000e+00
	2.500000000000000e-05

 18	0.000000000000000e+00
	2.499994000000000e-05

 19	0.000000000000000e+00
	2.499994000000000e-05

 20	0.000000000000000e+00
	2.499994000000000e-05

 21	0.000000000000000e+00
	2.499994000000000e-05

 22	0.000000000000000e+00
	2.499994000000000e-05

 23	0.000000000000000e+00
	2.499994000000000e-05

 24	0.000000000000000e+00
	2.499994000000000e-05

 25	0.000000000000000e+00
	2.499994000000000e-05

 26	0.000000000000000e+00
	2.499994000000000e-05

