Title: Constant values
Date: Sun Feb 12 22:23:57 UTC 2023
Plotname: constants
Flags: real
No. Variables: 2
No. Points: 27
Variables:
	0	yes	notype dims=1
	1	propdelay	notype
Values:
 0	1.000000000000000e+00
	1.824300000000019e-01

 1	0.000000000000000e+00
	1.000000000000000e+00

 2	0.000000000000000e+00
	1.000000000000000e+00

 3	0.000000000000000e+00
	1.824000000000012e-01

 4	0.000000000000000e+00
	1.000000000000000e+00

 5	0.000000000000000e+00
	1.000000000000000e+00

 6	0.000000000000000e+00
	1.723900000000000e-01

 7	0.000000000000000e+00
	1.000000000000000e+00

 8	0.000000000000000e+00
	1.000000000000000e+00

 9	0.000000000000000e+00
	1.822499999999998e-01

 10	0.000000000000000e+00
	1.000000000000000e+00

 11	0.000000000000000e+00
	1.000000000000000e+00

 12	0.000000000000000e+00
	1.822499999999998e-01

 13	0.000000000000000e+00
	-4.239599999999992e-01

 14	0.000000000000000e+00
	1.000000000000000e+00

 15	0.000000000000000e+00
	1.722400000000004e-01

 16	0.000000000000000e+00
	1.000000000000000e+00

 17	0.000000000000000e+00
	1.000000000000000e+00

 18	0.000000000000000e+00
	1.821699999999993e-01

 19	0.000000000000000e+00
	1.000000000000000e+00

 20	0.000000000000000e+00
	1.000000000000000e+00

 21	0.000000000000000e+00
	1.821600000000014e-01

 22	0.000000000000000e+00
	1.000000000000000e+00

 23	0.000000000000000e+00
	1.000000000000000e+00

 24	0.000000000000000e+00
	1.721599999999999e-01

 25	0.000000000000000e+00
	1.000000000000000e+00

 26	0.000000000000000e+00
	1.842160000000000e+00

